# Hashes of file build rules.
5c32786962fedc12b750af9372a7531c CMakeFiles/PVFoamReader_SMHierarchy
d14f2380b5f7f39240faa9f727515168 PVFoamReader_SM.xml
307d2741999dd40c12fe817606371bc6 PVFoamReader_SMHierarchy.txt
2235da15210cb43989213aa52c850728 PVFoamReader_SM_doc.h
eb5f808692119847544af91d4805b87c doc/PVFoamReader_SM.qch
06c7c464275de986cdb0340c52ec3010 vtkPVFoamReaderClientServer.cxx
ef99e04e0f3209454b8854b58a263b84 vtkSMXML_PVFoamReader_SM.h
