# Hashes of file build rules.
cfa9699854527d5bd82419da91786fd1 CMakeFiles/PVFoamReader_SMHierarchy
ed7a66ee2640e782af5422ad78e2c417 PVFoamReader_SM.xml
095da654f7860a34f8099ac4c0d42283 PVFoamReader_SMHierarchy.txt
f288d213a6fcacd51a1508505ba7e050 PVFoamReader_SM_doc.h
bffd636743e6de190d8ac349e667d1c6 doc/PVFoamReader_SM.qch
1a51116b2dcf4dacbdfba28a700856e8 vtkPVFoamReaderClientServer.cxx
51c7e284b3ae7808f8a4ce559393c5e1 vtkSMXML_PVFoamReader_SM.h
